 Entering Gaussian System, Link 0=g16
 Initial command:
 /home/user/disco1/.g16/g16/l1.exe "/home/user/disco1/.g16/g16/Scratch/Gau-38966.inp" -scrdir="/home/user/disco1/.g16/g16/Scratch/"
 Entering Link 1 = /home/user/disco1/.g16/g16/l1.exe PID=     38968.
  
 Copyright (c) 1988,1990,1992,1993,1995,1998,2003,2009,2016,
            Gaussian, Inc.  All Rights Reserved.
  
 This is part of the Gaussian(R) 16 program.  It is based on
 the Gaussian(R) 09 system (copyright 2009, Gaussian, Inc.),
 the Gaussian(R) 03 system (copyright 2003, Gaussian, Inc.),
 the Gaussian(R) 98 system (copyright 1998, Gaussian, Inc.),
 the Gaussian(R) 94 system (copyright 1995, Gaussian, Inc.),
 the Gaussian 92(TM) system (copyright 1992, Gaussian, Inc.),
 the Gaussian 90(TM) system (copyright 1990, Gaussian, Inc.),
 the Gaussian 88(TM) system (copyright 1988, Gaussian, Inc.),
 the Gaussian 86(TM) system (copyright 1986, Carnegie Mellon
 University), and the Gaussian 82(TM) system (copyright 1983,
 Carnegie Mellon University). Gaussian is a federally registered
 trademark of Gaussian, Inc.
  
 This software contains proprietary and confidential information,
 including trade secrets, belonging to Gaussian, Inc.
  
 This software is provided under written license and may be
 used, copied, transmitted, or stored only in accord with that
 written license.
  
 The following legend is applicable only to US Government
 contracts under FAR:
  
                    RESTRICTED RIGHTS LEGEND
  
 Use, reproduction and disclosure by the US Government is
 subject to restrictions as set forth in subparagraphs (a)
 and (c) of the Commercial Computer Software - Restricted
 Rights clause in FAR 52.227-19.
  
 Gaussian, Inc.
 340 Quinnipiac St., Bldg. 40, Wallingford CT 06492
  
  
 ---------------------------------------------------------------
 Warning -- This program may not be used in any manner that
 competes with the business of Gaussian, Inc. or will provide
 assistance to any competitor of Gaussian, Inc.  The licensee
 of this program is prohibited from giving any competitor of
 Gaussian, Inc. access to this program.  By using this program,
 the user acknowledges that Gaussian, Inc. is engaged in the
 business of creating and licensing software in the field of
 computational chemistry and represents and warrants to the
 licensee that it is not a competitor of Gaussian, Inc. and that
 it will not use this program in any manner prohibited above.
 ---------------------------------------------------------------
  

 Cite this work as:
 Gaussian 16, Revision A.03,
 M. J. Frisch, G. W. Trucks, H. B. Schlegel, G. E. Scuseria, 
 M. A. Robb, J. R. Cheeseman, G. Scalmani, V. Barone, 
 G. A. Petersson, H. Nakatsuji, X. Li, M. Caricato, A. V. Marenich, 
 J. Bloino, B. G. Janesko, R. Gomperts, B. Mennucci, H. P. Hratchian, 
 J. V. Ortiz, A. F. Izmaylov, J. L. Sonnenberg, D. Williams-Young, 
 F. Ding, F. Lipparini, F. Egidi, J. Goings, B. Peng, A. Petrone, 
 T. Henderson, D. Ranasinghe, V. G. Zakrzewski, J. Gao, N. Rega, 
 G. Zheng, W. Liang, M. Hada, M. Ehara, K. Toyota, R. Fukuda, 
 J. Hasegawa, M. Ishida, T. Nakajima, Y. Honda, O. Kitao, H. Nakai, 
 T. Vreven, K. Throssell, J. A. Montgomery, Jr., J. E. Peralta, 
 F. Ogliaro, M. J. Bearpark, J. J. Heyd, E. N. Brothers, K. N. Kudin, 
 V. N. Staroverov, T. A. Keith, R. Kobayashi, J. Normand, 
 K. Raghavachari, A. P. Rendell, J. C. Burant, S. S. Iyengar, 
 J. Tomasi, M. Cossi, J. M. Millam, M. Klene, C. Adamo, R. Cammi, 
 J. W. Ochterski, R. L. Martin, K. Morokuma, O. Farkas, 
 J. B. Foresman, and D. J. Fox, Gaussian, Inc., Wallingford CT, 2016.
 
 ******************************************
 Gaussian 16:  ES64L-G16RevA.03 25-Dec-2016
                 4-Oct-2025 
 ******************************************
 %chk=TMS-NMR-DMSO.chk
 %mem=186GB
 %nproc=20
 Will use up to   20 processors via shared memory.
 -----------------------------------------------------------
 # NMR=GIAO B3LYP/6-31g(d,p) scrf=(iefpcm,solvent=dmso,read)
 -----------------------------------------------------------
 1/38=1,40=2,172=1/1;
 2/12=2,17=6,18=5,40=1/2;
 3/5=1,6=6,7=101,11=2,25=1,30=1,70=2203,72=21,74=-5/1,2,3,8;
 4//1;
 5/5=2,38=5,53=21/2;
 8/6=1,10=90,11=11/1;
 10/13=100,45=16/2;
 6/7=2,8=2,9=2,10=2,28=1/1;
 99/9=1/99;
 ---------------------
 Job de reotimização
 ---------------------
 Symbolic Z-matrix:
 Charge =  0 Multiplicity = 1
 14                    0.        0.        0. 
 6                     1.08749   1.08749   1.08749 
 1                     1.73094   1.73094   0.48084 
 1                     0.48084   1.73094   1.73094 
 1                     1.73094   0.48084   1.73094 
 6                    -1.08749  -1.08749   1.08749 
 1                    -1.73094  -0.48084   1.73094 
 1                    -1.73094  -1.73094   0.48084 
 1                    -0.48084  -1.73094   1.73094 
 6                    -1.08749   1.08749  -1.08749 
 1                    -0.48084   1.73094  -1.73094 
 1                    -1.73094   0.48084  -1.73094 
 1                    -1.73094   1.73094  -0.48084 
 6                     1.08749  -1.08749  -1.08749 
 1                     1.73094  -1.73094  -0.48084 
 1                     0.48084  -1.73094  -1.73094 
 1                     1.73094  -0.48084  -1.73094 
 
                          Input orientation:                          
 ---------------------------------------------------------------------
 Center     Atomic      Atomic             Coordinates (Angstroms)
 Number     Number       Type             X           Y           Z
 ---------------------------------------------------------------------
      1         14           0        0.000000    0.000000    0.000000
      2          6           0        1.087494    1.087494    1.087494
      3          1           0        1.730940    1.730940    0.480838
      4          1           0        0.480838    1.730940    1.730940
      5          1           0        1.730940    0.480838    1.730940
      6          6           0       -1.087494   -1.087494    1.087494
      7          1           0       -1.730940   -0.480838    1.730940
      8          1           0       -1.730940   -1.730940    0.480838
      9          1           0       -0.480838   -1.730940    1.730940
     10          6           0       -1.087494    1.087494   -1.087494
     11          1           0       -0.480838    1.730940   -1.730940
     12          1           0       -1.730940    0.480838   -1.730940
     13          1           0       -1.730940    1.730940   -0.480838
     14          6           0        1.087494   -1.087494   -1.087494
     15          1           0        1.730940   -1.730940   -0.480838
     16          1           0        0.480838   -1.730940   -1.730940
     17          1           0        1.730940   -0.480838   -1.730940
 ---------------------------------------------------------------------
                    Distance matrix (angstroms):
                    1          2          3          4          5
     1  Si   0.000000
     2  C    1.883595   0.000000
     3  H    2.494697   1.093653   0.000000
     4  H    2.494697   1.093653   1.767911   0.000000
     5  H    2.494697   1.093653   1.767911   1.767911   0.000000
     6  C    1.883595   3.075898   4.031770   3.288960   3.288960
     7  H    2.494697   3.288960   4.294104   3.127926   3.592970
     8  H    2.494697   4.031770   4.895838   4.294104   4.294104
     9  H    2.494697   3.288960   4.294104   3.592970   3.127926
    10  C    1.883595   3.075898   3.288960   3.288960   4.031770
    11  H    2.494697   3.288960   3.127926   3.592970   4.294104
    12  H    2.494697   4.031770   4.294104   4.294104   4.895838
    13  H    2.494697   3.288960   3.592970   3.127926   4.294104
    14  C    1.883595   3.075898   3.288960   4.031770   3.288960
    15  H    2.494697   3.288960   3.592970   4.294104   3.127926
    16  H    2.494697   4.031770   4.294104   4.895838   4.294104
    17  H    2.494697   3.288960   3.127926   4.294104   3.592970
                    6          7          8          9         10
     6  C    0.000000
     7  H    1.093653   0.000000
     8  H    1.093653   1.767911   0.000000
     9  H    1.093653   1.767911   1.767911   0.000000
    10  C    3.075898   3.288960   3.288960   4.031770   0.000000
    11  H    4.031770   4.294104   4.294104   4.895838   1.093653
    12  H    3.288960   3.592970   3.127926   4.294104   1.093653
    13  H    3.288960   3.127926   3.592970   4.294104   1.093653
    14  C    3.075898   4.031770   3.288960   3.288960   3.075898
    15  H    3.288960   4.294104   3.592970   3.127926   4.031770
    16  H    3.288960   4.294104   3.127926   3.592970   3.288960
    17  H    4.031770   4.895838   4.294104   4.294104   3.288960
                   11         12         13         14         15
    11  H    0.000000
    12  H    1.767911   0.000000
    13  H    1.767911   1.767911   0.000000
    14  C    3.288960   3.288960   4.031770   0.000000
    15  H    4.294104   4.294104   4.895838   1.093653   0.000000
    16  H    3.592970   3.127926   4.294104   1.093653   1.767911
    17  H    3.127926   3.592970   4.294104   1.093653   1.767911
                   16         17
    16  H    0.000000
    17  H    1.767911   0.000000
 Stoichiometry    C4H12Si
 Framework group  TD[O(Si),4C3(C),6SGD(H2)]
 Deg. of freedom     3
 Full point group                 TD      NOp  24
 Largest Abelian subgroup         D2      NOp   4
 Largest concise Abelian subgroup D2      NOp   4
                         Standard orientation:                         
 ---------------------------------------------------------------------
 Center     Atomic      Atomic             Coordinates (Angstroms)
 Number     Number       Type             X           Y           Z
 ---------------------------------------------------------------------
      1         14           0        0.000000    0.000000    0.000000
      2          6           0        1.087494    1.087494    1.087494
      3          1           0        1.730940    1.730940    0.480838
      4          1           0        0.480838    1.730940    1.730940
      5          1           0        1.730940    0.480838    1.730940
      6          6           0       -1.087494   -1.087494    1.087494
      7          1           0       -1.730940   -0.480838    1.730940
      8          1           0       -1.730940   -1.730940    0.480838
      9          1           0       -0.480838   -1.730940    1.730940
     10          6           0       -1.087494    1.087494   -1.087494
     11          1           0       -0.480838    1.730940   -1.730940
     12          1           0       -1.730940    0.480838   -1.730940
     13          1           0       -1.730940    1.730940   -0.480838
     14          6           0        1.087494   -1.087494   -1.087494
     15          1           0        1.730940   -1.730940   -0.480838
     16          1           0        0.480838   -1.730940   -1.730940
     17          1           0        1.730940   -0.480838   -1.730940
 ---------------------------------------------------------------------
 Rotational constants (GHZ):           3.0870111           3.0870111           3.0870111
 Standard basis: 6-31G(d,p) (6D, 7F)
 There are    37 symmetry adapted cartesian basis functions of A   symmetry.
 There are    34 symmetry adapted cartesian basis functions of B1  symmetry.
 There are    34 symmetry adapted cartesian basis functions of B2  symmetry.
 There are    34 symmetry adapted cartesian basis functions of B3  symmetry.
 There are    37 symmetry adapted basis functions of A   symmetry.
 There are    34 symmetry adapted basis functions of B1  symmetry.
 There are    34 symmetry adapted basis functions of B2  symmetry.
 There are    34 symmetry adapted basis functions of B3  symmetry.
   139 basis functions,   248 primitive gaussians,   139 cartesian basis functions
    25 alpha electrons       25 beta electrons
       nuclear repulsion energy       245.6453821078 Hartrees.
 NAtoms=   17 NActive=   17 NUniq=    3 SFac= 4.00D+00 NAtFMM=   60 NAOKFM=F Big=F
 Integral buffers will be    131072 words long.
 Raffenetti 2 integral format.
 Two-electron integral symmetry is turned on.
 Using the following non-standard input for PCM:
 Radii=UFF
 DIS
 REP
 CAV
 --- end of non-standard input.
 ------------------------------------------------------------------------------
 Polarizable Continuum Model (PCM)
 =================================
 Model                : PCM.
 Atomic radii         : UFF (Universal Force Field).
 Polarization charges : Total charges.
 Charge compensation  : None.
 Solution method      : On-the-fly selection.
 Cavity type          : Scaled VdW (van der Waals Surface) (Alpha=1.100).
 Cavity algorithm     : GePol (No added spheres)
                        Default sphere list used, NSphG=   17.
                        Lebedev-Laikov grids with approx.  5.0 points / Ang**2.
                        Smoothing algorithm: York/Karplus (Gamma=1.0000).
                        Polarization charges: spherical gaussians, with
                                              point-specific exponents (IZeta= 3).
                        Self-potential: point-specific (ISelfS= 7).
                        Self-field    : sphere-specific E.n sum rule (ISelfD= 2).
 Solvent              : DiMethylSulfoxide, Eps=  46.826000 Eps(inf)=   2.007889
 ------------------------------------------------------------------------------
 Spheres list:
 ISph  on   Nord     Re0    Alpha      Xe            Ye            Ze
    1  Si      1    2.1475  1.100      0.000000      0.000000      0.000000
    2   C      2    1.9255  1.100      1.087494      1.087494      1.087494
    3   H      3    1.4430  1.100      1.730940      1.730940      0.480838
    4   H      4    1.4430  1.100      0.480838      1.730940      1.730940
    5   H      5    1.4430  1.100      1.730940      0.480838      1.730940
    6   C      6    1.9255  1.100     -1.087494     -1.087494      1.087494
    7   H      7    1.4430  1.100     -1.730940     -0.480838      1.730940
    8   H      8    1.4430  1.100     -1.730940     -1.730940      0.480838
    9   H      9    1.4430  1.100     -0.480838     -1.730940      1.730940
   10   C     10    1.9255  1.100     -1.087494      1.087494     -1.087494
   11   H     11    1.4430  1.100     -0.480838      1.730940     -1.730940
   12   H     12    1.4430  1.100     -1.730940      0.480838     -1.730940
   13   H     13    1.4430  1.100     -1.730940      1.730940     -0.480838
   14   C     14    1.9255  1.100      1.087494     -1.087494     -1.087494
   15   H     15    1.4430  1.100      1.730940     -1.730940     -0.480838
   16   H     16    1.4430  1.100      0.480838     -1.730940     -1.730940
   17   H     17    1.4430  1.100      1.730940     -0.480838     -1.730940
 ------------------------------------------------------------------------------
 DisRep: Neglecting contributions from atom    1 of solute.
 Nuclear repulsion after PCM non-electrostatic terms =      245.6638984086 Hartrees.
 One-electron integrals computed using PRISM.
 NBasis=   139 RedAO= T EigKep=  5.26D-03  NBF=    37    34    34    34
 NBsUse=   139 1.00D-06 EigRej= -1.00D+00 NBFU=    37    34    34    34
 ExpMin= 7.78D-02 ExpMax= 1.61D+04 ExpMxC= 2.43D+03 IAcc=3 IRadAn=         5 AccDes= 0.00D+00
 Harris functional with IExCor=  402 and IRadAn=       5 diagonalized for initial guess.
 HarFok:  IExCor=  402 AccDes= 0.00D+00 IRadAn=         5 IDoV= 1 UseB2=F ITyADJ=14
 ICtDFT=  3500011 ScaDFX=  1.000000  1.000000  1.000000  1.000000
 FoFCou: FMM=F IPFlag=           0 FMFlag=      100000 FMFlg1=           0
         NFxFlg=           0 DoJE=T BraDBF=F KetDBF=T FulRan=T
         wScrn=  0.000000 ICntrl=       500 IOpCl=  0 I1Cent=   200000004 NGrid=           0
         NMat0=    1 NMatS0=      1 NMatT0=    0 NMatD0=    1 NMtDS0=    0 NMtDT0=    0
 Petite list used in FoFCou.
 Initial guess orbital symmetries:
       Occupied  (A1) (T2) (T2) (T2) (A1) (A1) (T2) (T2) (T2) (A1)
                 (T2) (T2) (T2) (A1) (T2) (T2) (T2) (E) (E) (T1)
                 (T1) (T1) (T2) (T2) (T2)
       Virtual   (A1) (T2) (T2) (T2) (T2) (T2) (T2) (E) (E) (A1)
                 (T1) (T1) (T1) (T2) (T2) (T2) (T2) (T2) (T2) (E)
                 (E) (A1) (T2) (T2) (T2) (A1) (T2) (T2) (T2) (T1)
                 (T1) (T1) (E) (E) (T2) (T2) (T2) (T1) (T1) (T1)
                 (E) (E) (T2) (T2) (T2) (A1) (T2) (T2) (T2) (T2)
                 (T2) (T2) (T1) (T1) (T1) (A1) (E) (E) (T2) (T2)
                 (T2) (A1) (T1) (T1) (T1) (A2) (E) (E) (T2) (T2)
                 (T2) (T1) (T1) (T1) (T2) (T2) (T2) (T1) (T1) (T1)
                 (T2) (T2) (T2) (E) (E) (A1) (T2) (T2) (T2) (E)
                 (E) (T1) (T1) (T1) (T2) (T2) (T2) (A1) (T2) (T2)
                 (T2) (A1) (T2) (T2) (T2) (E) (E) (T1) (T1) (T1)
                 (A1) (T2) (T2) (T2)
 The electronic state of the initial guess is 1-A1.
 Keep R1 ints in memory in symmetry-blocked form, NReq=66624318.
 Requested convergence on RMS density matrix=1.00D-08 within 128 cycles.
 Requested convergence on MAX density matrix=1.00D-06.
 Requested convergence on             energy=1.00D-06.
 No special actions if energy rises.
 Inv3:  Mode=1 IEnd=     5930508.
 Iteration    1 A*A^-1 deviation from unit magnitude is 3.77D-15 for    753.
 Iteration    1 A*A^-1 deviation from orthogonality  is 2.18D-15 for   1072     86.
 Iteration    1 A^-1*A deviation from unit magnitude is 3.11D-15 for    753.
 Iteration    1 A^-1*A deviation from orthogonality  is 1.89D-15 for   1097    562.
 Error on total polarization charges =  0.00955
 SCF Done:  E(RB3LYP) =  -449.192788788     A.U. after    8 cycles
            NFock=  8  Conv=0.16D-08     -V/T= 2.0061
 DoSCS=F DFT=T ScalE2(SS,OS)=  1.000000  1.000000
 Range of M.O.s used for correlation:     1   139
 NBasis=   139 NAE=    25 NBE=    25 NFC=     0 NFV=     0
 NROrb=    139 NOA=    25 NOB=    25 NVA=   114 NVB=   114
 NEqPCM:  Using equilibrium solvation (IEInf=0, Eps=  46.8260, EpsInf=   2.0079)
          Differentiating once with respect to magnetic field using GIAOs.
          Electric field/nuclear overlap derivatives assumed to be zero.
 Keep R3 ints in memory in symmetry-blocked form, NReq=68606543.
 FoFJK:  IHMeth= 1 ICntrl=    6127 DoSepK=F KAlg= 0 I1Cent=           0 FoldK=F
 IRaf=         1 NMat=       1 IRICut=       1 DoRegI=T DoRafI=F ISym2E= 0 IDoP0=0 IntGTp=1.
          There are     3 degrees of freedom in the 1st order CPHF.  IDoFFX=0 NUNeed=     3.
      3 vectors produced by pass  0 Test12= 9.50D-14 3.33D-08 XBig12= 3.51D+00 6.31D-01.
 AX will form     3 AO Fock derivatives at one time.
      3 vectors produced by pass  1 Test12= 9.50D-14 3.33D-08 XBig12= 2.55D-03 1.45D-02.
      3 vectors produced by pass  2 Test12= 9.50D-14 3.33D-08 XBig12= 1.14D-06 3.41D-04.
      3 vectors produced by pass  3 Test12= 9.50D-14 3.33D-08 XBig12= 1.20D-09 1.30D-05.
      3 vectors produced by pass  4 Test12= 9.50D-14 3.33D-08 XBig12= 1.14D-12 3.08D-07.
 InvSVY:  IOpt=1 It=  1 EMax= 2.22D-16
 Solved reduced A of dimension    15 with     3 vectors.
 Calculating GIAO nuclear magnetic shielding tensors.
 SCF GIAO Magnetic shielding tensor (ppm):
      1  Si   Isotropic =   413.4819   Anisotropy =     0.0000
   XX=   413.4819   YX=     0.0000   ZX=     0.0000
   XY=     0.0000   YY=   413.4819   ZY=     0.0000
   XZ=     0.0000   YZ=     0.0000   ZZ=   413.4819
   Eigenvalues:   413.4819   413.4819   413.4819
      2  C    Isotropic =   192.8878   Anisotropy =     7.1781
   XX=   192.8878   YX=     2.3927   ZX=     2.3927
   XY=     2.3927   YY=   192.8878   ZY=     2.3927
   XZ=     2.3927   YZ=     2.3927   ZZ=   192.8878
   Eigenvalues:   190.4951   190.4951   197.6732
      3  H    Isotropic =    31.8296   Anisotropy =     9.9793
   XX=    32.6548   YX=     4.9769   ZX=    -1.9510
   XY=     4.9769   YY=    32.6548   ZY=    -1.9510
   XZ=    -1.8077   YZ=    -1.8077   ZZ=    30.1792
   Eigenvalues:    27.6779    29.3285    38.4825
      4  H    Isotropic =    31.8296   Anisotropy =     9.9793
   XX=    30.1792   YX=    -1.8077   ZX=    -1.8077
   XY=    -1.9510   YY=    32.6548   ZY=     4.9769
   XZ=    -1.9510   YZ=     4.9769   ZZ=    32.6548
   Eigenvalues:    27.6779    29.3285    38.4825
      5  H    Isotropic =    31.8296   Anisotropy =     9.9793
   XX=    32.6548   YX=    -1.9510   ZX=     4.9769
   XY=    -1.8077   YY=    30.1792   ZY=    -1.8077
   XZ=     4.9769   YZ=    -1.9510   ZZ=    32.6548
   Eigenvalues:    27.6779    29.3285    38.4825
      6  C    Isotropic =   192.8878   Anisotropy =     7.1781
   XX=   192.8878   YX=     2.3927   ZX=    -2.3927
   XY=     2.3927   YY=   192.8878   ZY=    -2.3927
   XZ=    -2.3927   YZ=    -2.3927   ZZ=   192.8878
   Eigenvalues:   190.4951   190.4951   197.6732
      7  H    Isotropic =    31.8296   Anisotropy =     9.9793
   XX=    32.6548   YX=    -1.9510   ZX=    -4.9769
   XY=    -1.8077   YY=    30.1792   ZY=     1.8077
   XZ=    -4.9769   YZ=     1.9510   ZZ=    32.6548
   Eigenvalues:    27.6779    29.3285    38.4825
      8  H    Isotropic =    31.8296   Anisotropy =     9.9793
   XX=    32.6548   YX=     4.9769   ZX=     1.9510
   XY=     4.9769   YY=    32.6548   ZY=     1.9510
   XZ=     1.8077   YZ=     1.8077   ZZ=    30.1792
   Eigenvalues:    27.6779    29.3285    38.4825
      9  H    Isotropic =    31.8296   Anisotropy =     9.9793
   XX=    30.1792   YX=    -1.8077   ZX=     1.8077
   XY=    -1.9510   YY=    32.6548   ZY=    -4.9769
   XZ=     1.9510   YZ=    -4.9769   ZZ=    32.6548
   Eigenvalues:    27.6779    29.3285    38.4825
     10  C    Isotropic =   192.8878   Anisotropy =     7.1781
   XX=   192.8878   YX=    -2.3927   ZX=     2.3927
   XY=    -2.3927   YY=   192.8878   ZY=    -2.3927
   XZ=     2.3927   YZ=    -2.3927   ZZ=   192.8878
   Eigenvalues:   190.4951   190.4951   197.6732
     11  H    Isotropic =    31.8296   Anisotropy =     9.9793
   XX=    30.1792   YX=     1.8077   ZX=    -1.8077
   XY=     1.9510   YY=    32.6548   ZY=    -4.9769
   XZ=    -1.9510   YZ=    -4.9769   ZZ=    32.6548
   Eigenvalues:    27.6779    29.3285    38.4825
     12  H    Isotropic =    31.8296   Anisotropy =     9.9793
   XX=    32.6548   YX=     1.9510   ZX=     4.9769
   XY=     1.8077   YY=    30.1792   ZY=     1.8077
   XZ=     4.9769   YZ=     1.9510   ZZ=    32.6548
   Eigenvalues:    27.6779    29.3285    38.4825
     13  H    Isotropic =    31.8296   Anisotropy =     9.9793
   XX=    32.6548   YX=    -4.9769   ZX=    -1.9510
   XY=    -4.9769   YY=    32.6548   ZY=     1.9510
   XZ=    -1.8077   YZ=     1.8077   ZZ=    30.1792
   Eigenvalues:    27.6779    29.3285    38.4825
     14  C    Isotropic =   192.8878   Anisotropy =     7.1781
   XX=   192.8878   YX=    -2.3927   ZX=    -2.3927
   XY=    -2.3927   YY=   192.8878   ZY=     2.3927
   XZ=    -2.3927   YZ=     2.3927   ZZ=   192.8878
   Eigenvalues:   190.4951   190.4951   197.6732
     15  H    Isotropic =    31.8296   Anisotropy =     9.9793
   XX=    32.6548   YX=    -4.9769   ZX=     1.9510
   XY=    -4.9769   YY=    32.6548   ZY=    -1.9510
   XZ=     1.8077   YZ=    -1.8077   ZZ=    30.1792
   Eigenvalues:    27.6779    29.3285    38.4825
     16  H    Isotropic =    31.8296   Anisotropy =     9.9793
   XX=    30.1792   YX=     1.8077   ZX=     1.8077
   XY=     1.9510   YY=    32.6548   ZY=     4.9769
   XZ=     1.9510   YZ=     4.9769   ZZ=    32.6548
   Eigenvalues:    27.6779    29.3285    38.4825
     17  H    Isotropic =    31.8296   Anisotropy =     9.9793
   XX=    32.6548   YX=     1.9510   ZX=    -4.9769
   XY=     1.8077   YY=    30.1792   ZY=    -1.8077
   XZ=    -4.9769   YZ=    -1.9510   ZZ=    32.6548
   Eigenvalues:    27.6779    29.3285    38.4825
 End of Minotr F.D. properties file   721 does not exist.
 End of Minotr F.D. properties file   722 does not exist.
 End of Minotr F.D. properties file   788 does not exist.

 **********************************************************************

            Population analysis using the SCF density.

 **********************************************************************

 Orbital symmetries:
       Occupied  (A1) (T2) (T2) (T2) (A1) (A1) (T2) (T2) (T2) (A1)
                 (T2) (T2) (T2) (A1) (T2) (T2) (T2) (E) (E) (T1)
                 (T1) (T1) (T2) (T2) (T2)
       Virtual   (A1) (T2) (T2) (T2) (T2) (T2) (T2) (E) (E) (T1)
                 (T1) (T1) (T2) (T2) (T2) (A1) (T2) (T2) (T2) (A1)
                 (E) (E) (T2) (T2) (T2) (A1) (T2) (T2) (T2) (T1)
                 (T1) (T1) (E) (E) (T2) (T2) (T2) (T1) (T1) (T1)
                 (T2) (T2) (T2) (E) (E) (A1) (T2) (T2) (T2) (T2)
                 (T2) (T2) (A1) (T1) (T1) (T1) (E) (E) (T2) (T2)
                 (T2) (A1) (T1) (T1) (T1) (A2) (E) (E) (T2) (T2)
                 (T2) (T1) (T1) (T1) (T2) (T2) (T2) (T1) (T1) (T1)
                 (T2) (T2) (T2) (E) (E) (A1) (T2) (T2) (T2) (E)
                 (E) (T1) (T1) (T1) (T2) (T2) (T2) (A1) (T2) (T2)
                 (T2) (A1) (T2) (T2) (T2) (E) (E) (T1) (T1) (T1)
                 (A1) (T2) (T2) (T2)
 The electronic state is 1-A1.
 Alpha  occ. eigenvalues --  -66.10582 -10.15203 -10.15203 -10.15203 -10.15202
 Alpha  occ. eigenvalues --   -5.25152  -3.61017  -3.61017  -3.61017  -0.71247
 Alpha  occ. eigenvalues --   -0.66932  -0.66932  -0.66932  -0.44898  -0.40560
 Alpha  occ. eigenvalues --   -0.40560  -0.40560  -0.39015  -0.39015  -0.37244
 Alpha  occ. eigenvalues --   -0.37244  -0.37244  -0.28744  -0.28744  -0.28744
 Alpha virt. eigenvalues --    0.07711   0.10654   0.10654   0.10654   0.14230
 Alpha virt. eigenvalues --    0.14230   0.14230   0.15464   0.15464   0.20612
 Alpha virt. eigenvalues --    0.20612   0.20612   0.21021   0.21021   0.21021
 Alpha virt. eigenvalues --    0.22307   0.38545   0.38545   0.38545   0.41687
 Alpha virt. eigenvalues --    0.44790   0.44790   0.60822   0.60822   0.60822
 Alpha virt. eigenvalues --    0.69370   0.71729   0.71729   0.71729   0.75103
 Alpha virt. eigenvalues --    0.75103   0.75103   0.76735   0.76735   0.88375
 Alpha virt. eigenvalues --    0.88375   0.88375   0.89607   0.89607   0.89607
 Alpha virt. eigenvalues --    0.92509   0.92509   0.92509   0.92601   0.92601
 Alpha virt. eigenvalues --    0.93237   1.01262   1.01262   1.01262   1.27234
 Alpha virt. eigenvalues --    1.27234   1.27234   1.38807   1.43377   1.43377
 Alpha virt. eigenvalues --    1.43377   1.51709   1.51709   1.63933   1.63933
 Alpha virt. eigenvalues --    1.63933   1.94821   2.05586   2.05586   2.05586
 Alpha virt. eigenvalues --    2.05625   2.08292   2.08292   2.10070   2.10070
 Alpha virt. eigenvalues --    2.10070   2.14447   2.14447   2.14447   2.16946
 Alpha virt. eigenvalues --    2.16946   2.16946   2.32999   2.32999   2.32999
 Alpha virt. eigenvalues --    2.36628   2.36628   2.36628   2.38726   2.38726
 Alpha virt. eigenvalues --    2.63968   2.69719   2.69719   2.69719   2.81117
 Alpha virt. eigenvalues --    2.81117   2.85019   2.85019   2.85019   2.86053
 Alpha virt. eigenvalues --    2.86053   2.86053   3.09968   3.20565   3.20565
 Alpha virt. eigenvalues --    3.20565   3.22920   3.43538   3.43538   3.43538
 Alpha virt. eigenvalues --    3.44228   3.44228   3.46623   3.46623   3.46623
 Alpha virt. eigenvalues --    4.45400   4.46382   4.46382   4.46382
          Condensed to atoms (all electrons):
               1          2          3          4          5          6
     1  Si  11.983914   0.388165  -0.023655  -0.023655  -0.023655   0.388165
     2  C    0.388165   5.103009   0.374155   0.374155   0.374155  -0.027054
     3  H   -0.023655   0.374155   0.582873  -0.023823  -0.023823   0.001334
     4  H   -0.023655   0.374155  -0.023823   0.582873  -0.023823  -0.001113
     5  H   -0.023655   0.374155  -0.023823  -0.023823   0.582873  -0.001113
     6  C    0.388165  -0.027054   0.001334  -0.001113  -0.001113   5.103009
     7  H   -0.023655  -0.001113  -0.000000   0.000507  -0.000075   0.374155
     8  H   -0.023655   0.001334  -0.000024  -0.000000  -0.000000   0.374155
     9  H   -0.023655  -0.001113  -0.000000  -0.000075   0.000507   0.374155
    10  C    0.388165  -0.027054  -0.001113  -0.001113   0.001334  -0.027054
    11  H   -0.023655  -0.001113   0.000507  -0.000075  -0.000000   0.001334
    12  H   -0.023655   0.001334  -0.000000  -0.000000  -0.000024  -0.001113
    13  H   -0.023655  -0.001113  -0.000075   0.000507  -0.000000  -0.001113
    14  C    0.388165  -0.027054  -0.001113   0.001334  -0.001113  -0.027054
    15  H   -0.023655  -0.001113  -0.000075  -0.000000   0.000507  -0.001113
    16  H   -0.023655   0.001334  -0.000000  -0.000024  -0.000000  -0.001113
    17  H   -0.023655  -0.001113   0.000507  -0.000000  -0.000075   0.001334
               7          8          9         10         11         12
     1  Si  -0.023655  -0.023655  -0.023655   0.388165  -0.023655  -0.023655
     2  C   -0.001113   0.001334  -0.001113  -0.027054  -0.001113   0.001334
     3  H   -0.000000  -0.000024  -0.000000  -0.001113   0.000507  -0.000000
     4  H    0.000507  -0.000000  -0.000075  -0.001113  -0.000075  -0.000000
     5  H   -0.000075  -0.000000   0.000507   0.001334  -0.000000  -0.000024
     6  C    0.374155   0.374155   0.374155  -0.027054   0.001334  -0.001113
     7  H    0.582873  -0.023823  -0.023823  -0.001113  -0.000000  -0.000075
     8  H   -0.023823   0.582873  -0.023823  -0.001113  -0.000000   0.000507
     9  H   -0.023823  -0.023823   0.582873   0.001334  -0.000024  -0.000000
    10  C   -0.001113  -0.001113   0.001334   5.103009   0.374155   0.374155
    11  H   -0.000000  -0.000000  -0.000024   0.374155   0.582873  -0.023823
    12  H   -0.000075   0.000507  -0.000000   0.374155  -0.023823   0.582873
    13  H    0.000507  -0.000075  -0.000000   0.374155  -0.023823  -0.023823
    14  C    0.001334  -0.001113  -0.001113  -0.027054  -0.001113  -0.001113
    15  H   -0.000000  -0.000075   0.000507   0.001334  -0.000000  -0.000000
    16  H   -0.000000   0.000507  -0.000075  -0.001113  -0.000075   0.000507
    17  H   -0.000024  -0.000000  -0.000000  -0.001113   0.000507  -0.000075
              13         14         15         16         17
     1  Si  -0.023655   0.388165  -0.023655  -0.023655  -0.023655
     2  C   -0.001113  -0.027054  -0.001113   0.001334  -0.001113
     3  H   -0.000075  -0.001113  -0.000075  -0.000000   0.000507
     4  H    0.000507   0.001334  -0.000000  -0.000024  -0.000000
     5  H   -0.000000  -0.001113   0.000507  -0.000000  -0.000075
     6  C   -0.001113  -0.027054  -0.001113  -0.001113   0.001334
     7  H    0.000507   0.001334  -0.000000  -0.000000  -0.000024
     8  H   -0.000075  -0.001113  -0.000075   0.000507  -0.000000
     9  H   -0.000000  -0.001113   0.000507  -0.000075  -0.000000
    10  C    0.374155  -0.027054   0.001334  -0.001113  -0.001113
    11  H   -0.023823  -0.001113  -0.000000  -0.000075   0.000507
    12  H   -0.023823  -0.001113  -0.000000   0.000507  -0.000075
    13  H    0.582873   0.001334  -0.000024  -0.000000  -0.000000
    14  C    0.001334   5.103009   0.374155   0.374155   0.374155
    15  H   -0.000024   0.374155   0.582873  -0.023823  -0.023823
    16  H   -0.000000   0.374155  -0.023823   0.582873  -0.023823
    17  H   -0.000000   0.374155  -0.023823  -0.023823   0.582873
 Mulliken charges:
               1
     1  Si   0.747287
     2  C   -0.529803
     3  H    0.114327
     4  H    0.114327
     5  H    0.114327
     6  C   -0.529803
     7  H    0.114327
     8  H    0.114327
     9  H    0.114327
    10  C   -0.529803
    11  H    0.114327
    12  H    0.114327
    13  H    0.114327
    14  C   -0.529803
    15  H    0.114327
    16  H    0.114327
    17  H    0.114327
 Sum of Mulliken charges =  -0.00000
 Mulliken charges with hydrogens summed into heavy atoms:
               1
     1  Si   0.747287
     2  C   -0.186822
     6  C   -0.186822
    10  C   -0.186822
    14  C   -0.186822
 Electronic spatial extent (au):  <R**2>=            663.5063
 Charge=              0.0000 electrons
 Dipole moment (field-independent basis, Debye):
    X=              0.0000    Y=              0.0000    Z=              0.0000  Tot=              0.0000
 Quadrupole moment (field-independent basis, Debye-Ang):
   XX=            -41.5769   YY=            -41.5769   ZZ=            -41.5769
   XY=             -0.0000   XZ=             -0.0000   YZ=              0.0000
 Traceless Quadrupole moment (field-independent basis, Debye-Ang):
   XX=             -0.0000   YY=              0.0000   ZZ=              0.0000
   XY=             -0.0000   XZ=             -0.0000   YZ=              0.0000
 Octapole moment (field-independent basis, Debye-Ang**2):
  XXX=              0.0000  YYY=              0.0000  ZZZ=             -0.0000  XYY=             -0.0000
  XXY=             -0.0000  XXZ=              0.0000  XZZ=              0.0000  YZZ=              0.0000
  YYZ=             -0.0000  XYZ=             -4.4476
 Hexadecapole moment (field-independent basis, Debye-Ang**3):
 XXXX=           -312.6779 YYYY=           -312.6779 ZZZZ=           -312.6779 XXXY=             -0.0000
 XXXZ=             -0.0000 YYYX=             -0.0000 YYYZ=              0.0000 ZZZX=             -0.0000
 ZZZY=              0.0000 XXYY=           -104.1573 XXZZ=           -104.1573 YYZZ=           -104.1573
 XXYZ=              0.0000 YYXZ=             -0.0000 ZZXY=             -0.0000
 N-N= 2.456638984086D+02 E-N=-1.548938814311D+03  KE= 4.464724743808D+02
 Symmetry A    KE= 2.512006247594D+02
 Symmetry B1   KE= 6.509061654045D+01
 Symmetry B2   KE= 6.509061654045D+01
 Symmetry B3   KE= 6.509061654045D+01
 1\1\GINC-DELL5\SP\RB3LYP\6-31G(d,p)\C4H12Si1\USER\04-Oct-2025\0\\# NMR
 =GIAO B3LYP/6-31g(d,p) scrf=(iefpcm,solvent=dmso,read)\\Job de reotimi
 zação\\0,1\Si,0,0.,0.,0.\C,0,1.087494,1.087494,1.087494\H,0,1.73094,
 1.73094,0.480838\H,0,0.480838,1.73094,1.73094\H,0,1.73094,0.480838,1.7
 3094\C,0,-1.087494,-1.087494,1.087494\H,0,-1.73094,-0.480838,1.73094\H
 ,0,-1.73094,-1.73094,0.480838\H,0,-0.480838,-1.73094,1.73094\C,0,-1.08
 7494,1.087494,-1.087494\H,0,-0.480838,1.73094,-1.73094\H,0,-1.73094,0.
 480838,-1.73094\H,0,-1.73094,1.73094,-0.480838\C,0,1.087494,-1.087494,
 -1.087494\H,0,1.73094,-1.73094,-0.480838\H,0,0.480838,-1.73094,-1.7309
 4\H,0,1.73094,-0.480838,-1.73094\\Version=ES64L-G16RevA.03\State=1-A1\
 HF=-449.1927888\RMSD=1.632e-09\Dipole=0.,0.,0.\Quadrupole=0.,0.,0.,0.,
 0.,0.\PG=TD [O(Si1),4C3(C1),6SGD(H2)]\\@


 SCIENCE AT ITS BEST PROVIDES US WITH BETTER QUESTIONS, 
 NOT ABSOLUTE ANSWERS

                                    -- NORMAN COUSINS, 1976
 Job cpu time:       0 days  0 hours  2 minutes  4.3 seconds.
 Elapsed time:       0 days  0 hours  0 minutes  7.7 seconds.
 File lengths (MBytes):  RWF=     45 Int=      0 D2E=      0 Chk=      3 Scr=      1
 Normal termination of Gaussian 16 at Sat Oct  4 10:35:09 2025.
